96
Lattice="10.152563445534453 0.0 0.0 0.0 10.152563445534453 0.0 0.0 0.0 10.152563445534453" Properties=species:S:1:pos:R:3:forces:R:3:magmoms:R:1 energy=-896.09696946 stress="-0.048936213075466695 0.01204520129020722 -0.00698600442965595 0.01204520129020722 -0.04866315412283914 -0.006839183737763352 -0.00698600442965595 -0.006839183737763352 -0.05191493956419615" dipole="_JSON [[0.0, 0.0, 0.0]]" magmom=0.0 free_energy=-896.09696946 pbc="T T T"
O        3.86827799       3.82111196       3.66341053      -1.28897239       1.06714103       1.30542691       0.00000000
O        1.38688209       1.26202911       1.35494946      -1.63427299       0.03651493      -1.68885207       0.00000000
O        1.27504773       3.83423122       1.24737161      -1.17910952       0.44054320       0.77473814       0.00000000
O        3.82302753       1.31381130       3.89052012       0.08088117      -0.44069653      -1.14719341       0.00000000
O        1.17260786       1.21671959       3.62175502      -0.03516457       0.20840611       2.38050572       0.00000000
O        3.68474099       3.82595378       1.16686002       2.17969938       0.52650881      -0.00756564       0.00000000
O        3.68068382       1.27569934       1.24540855       3.43285483       0.19616333       1.11570322       0.00000000
O        1.09000755       3.75431614       3.74065423       3.26541146       2.21859675       1.64983826       0.00000000
O        3.80259745       3.93718506       8.69380916       2.84166443      -3.04503023       2.68576314       0.00000000
O        1.17772795       1.23805968       6.24955644       0.62515117       0.04354699      -0.24985917       0.00000000
O        1.29475119       3.67780891       6.42143089      -0.21198302       1.74544407      -1.19270266       0.00000000
O        3.70252500       1.33993974       8.77069543       0.58718946       0.03403096       0.95860134       0.00000000
O        1.07092574       1.25625613       8.85848363       2.40140036      -1.75312940       0.19111430       0.00000000
O        3.72996135       3.86138743       6.41853483       1.18444091      -1.16288182      -3.75789366       0.00000000
O        3.77487019       1.19755209       6.29808082       0.87843903       1.41895917       0.23202595       0.00000000
O        1.31651389       3.61713983       8.95197649      -0.59735824       2.46957721      -0.83320607       0.00000000
O        3.77871532       8.84517515       3.72715559       1.64174554      -0.64114795       2.26716224       0.00000000
O        1.29404972       6.37435707       1.39062728      -1.00418661      -0.63020900       0.15864371       0.00000000
O        1.45223003       8.89678304       1.10352269      -0.48199223      -0.87277077       2.38827493       0.00000000
O        3.75099132       6.40332731       3.82119597       3.36291197      -0.99464985       0.21334637       0.00000000
O        1.44349144       6.51537552       3.96889734      -4.52337621      -4.99847785      -3.75541744       0.00000000
O        3.83517720       9.04551273       1.35431169       2.10448395      -1.42201103      -0.20657682       0.00000000
O        3.82691558       6.39620458       1.39343745       0.51712192      -0.29050892      -0.70650631       0.00000000
O        1.16917637       8.80360355       3.89370438       0.91307015       0.93859256      -1.35588787       0.00000000
O        3.78210871       8.94542381       8.96291762      -0.32930465      -0.95343040       0.43855611       0.00000000
O        1.40839130       6.38783753       6.33994814      -1.37311755      -0.82639996       0.77424106       0.00000000
O        1.29596736       8.87476812       6.28494216      -0.37993256      -0.06295618       2.18465355       0.00000000
O        3.83028468       6.16867252       8.77496039       0.41937431       2.94458207       3.40394836       0.00000000
O        1.29910550       6.33968712       8.96665293      -0.45144726      -0.12877779      -0.65049628       0.00000000
O        3.87454260       8.95758535       6.48923729       0.40824098      -0.73429090      -1.30162433       0.00000000
O        3.84784627       6.38977147       6.48191358       0.05770010       0.07494570      -2.52395211       0.00000000
O        1.28136920       8.83306264       9.03773613       0.04658339      -1.06569922      -3.06850922       0.00000000
O        8.95159263       3.83431759       3.88599261      -2.42054125      -1.24288719      -1.30906244       0.00000000
O        6.33316883       1.23616275       1.31918214      -0.31509178       0.89466499       0.08003616       0.00000000
O        6.30526629       3.77654715       1.31769927       0.04139692      -0.28560522      -0.91067816       0.00000000
O        8.89876460       1.10126635       3.79702604      -1.27522092       2.62715843       0.14183696       0.00000000
O        6.28350134       1.18648685       3.85844552       0.62333675       1.56601225      -0.41695261       0.00000000
O        8.79337552       3.97621514       1.29129596       0.94594608      -2.27610151      -1.81322137       0.00000000
O        8.83999698       1.38354897       1.18226305      -0.49321406       0.11563100       1.56040500       0.00000000
O        6.24516567       3.90912222       3.92815170       2.00750378      -2.27133107      -1.58534624       0.00000000
O        8.96655711       3.83442733       8.91197874      -1.07427370      -0.59720797       0.11056956       0.00000000
O        6.50097237       1.18433951       6.36500031      -1.50627179       0.89717285      -1.07235398       0.00000000
O        6.25582287       3.82570744       6.44119959       0.12063872      -0.13854215      -1.75499040       0.00000000
O        8.95233786       1.10483278       8.96675348      -3.68280162       1.76997536      -1.69043910       0.00000000
O        6.24929296       1.12319263       8.67397292       0.29985563       1.77533004       2.11489415       0.00000000
O        8.83324356       3.65564281       6.34280328      -0.76711789       1.07367028      -0.00997564       0.00000000
O        8.88107610       1.28459228       6.32889810      -0.65696828      -1.34873097       0.24545599       0.00000000
O        6.38139995       3.82096056       8.81958660      -0.47535380      -0.87271837       2.01386146       0.00000000
O        8.93771533       8.78283104       3.81853344      -2.61174432       0.16293698       0.63038070       0.00000000
O        6.32320670       6.28246201       1.27373142       0.16189806       0.91031721       0.01613970       0.00000000
O        6.44319034       8.97484350       0.97659781      -0.68609942      -0.04259352       3.85804116       0.00000000
O        8.73382620       6.28096117       3.86438907       2.03826801       0.34648451      -1.13850865       0.00000000
O        6.41448801       6.31079761       3.85351318      -1.38272761       1.09766710       0.02868622       0.00000000
O        9.02602391       8.85826159       1.38079290      -0.72642988       0.04015296      -0.57970093       0.00000000
O        8.83901754       6.36187203       1.34963564       0.45106181       0.53292530      -0.36370388       0.00000000
O        6.27683630       8.91827261       3.86538895       1.20770261      -0.79957776      -1.87666276       0.00000000
O        8.96704868       8.85401811       8.89130976      -1.61395838      -1.03541824       0.01665922       0.00000000
O        6.26048859       6.38758215       6.47542742       1.94784954      -0.66000636      -3.76132859       0.00000000
O        6.37469843       8.95208784       6.27831056       0.49607331      -1.70336258       0.30963112       0.00000000
O        8.83130644       6.30085985       8.95892370      -0.12801885       1.01058173      -1.02943947       0.00000000
O        6.29714951       6.34406317       8.76230088       0.71379359      -0.47602474       2.96873179       0.00000000
O        8.87076165       8.76084553       6.38140140      -0.38841295       0.61984297       0.07609238       0.00000000
O        8.96362260       6.25841237       6.29286218      -0.84781045       0.11849172       1.05392854       0.00000000
O        6.22206327       8.83207369       8.86191695       2.31539695       0.25187665      -0.70925885       0.00000000
Zr       0.01713005      -0.10277777      -0.10765085       0.94272773       1.93274030       3.62504529       0.00000000
Zr       2.52832189      -0.10475413       2.69361966      -1.63162928       1.24110171      -2.32768202       0.00000000
Zr       2.56321289       2.37336598       0.03317936      -3.28733162       2.05777285      -0.02229757       0.00000000
Zr      -0.01402021       2.57204679       2.56897958       2.12405607      -0.66189692      -2.57613207       0.00000000
Zr      -0.16940154       0.05170710       5.11004654       4.30721750      -1.26723627       1.58958428       0.00000000
Zr       2.52845430      -0.15245118       7.75706824       0.07889525       1.14773522      -1.54455522       0.00000000
Zr       2.64220600       2.56334540       5.04794899      -1.59322183      -1.34204555       1.12173570       0.00000000
Zr       0.06836811       2.57362761       7.59530196       0.61462445      -0.29438414      -0.35760554       0.00000000
Zr      -0.01907823       5.24082629      -0.13017316       0.40673580      -3.64044511       1.86816685       0.00000000
Zr       2.54943258       5.24600768       2.62099623      -0.46355001      -3.71980221      -1.87276839       0.00000000
Zr       2.50193841       7.38434538       0.10334745       2.24868586       3.94718940      -0.37176232       0.00000000
Zr      -0.01473177       7.48219260       2.65146739      -0.81334620       2.73518492      -0.97380883       0.00000000
Zr      -0.02777532       5.14401886       4.99329339      -0.43320410      -1.29738238       2.85570646       0.00000000
Zr       2.58686315       5.05294413       7.60147661      -1.48361217      -0.01824076      -0.80398588       0.00000000
Zr       2.56599715       7.54677357       5.00117647       1.24790169       4.01115298       5.59816361       0.00000000
Zr       0.08134488       7.67519628       7.69825336       0.08660009      -0.82242148      -2.97319048       0.00000000
Zr       5.02047230       0.10306303       0.11201725      -1.57979293      -1.33144585      -0.78023729       0.00000000
Zr       7.60581138       0.17733386       2.70221829       0.45246709      -1.58004507      -4.37550663       0.00000000
Zr       7.68151679       2.63345660      -0.13832851       1.94730604      -2.19422223       0.78115463       0.00000000
Zr       5.11204874       2.62717517       2.51128541      -2.17953605      -1.67678094       0.07327019       0.00000000
Zr       5.08882559      -0.11770636       5.15428781      -3.38879715       2.67234021       1.13690323       0.00000000
Zr       7.59338919      -0.12438931       7.66369621       0.67345089       1.15030382       0.40997195       0.00000000
Zr       7.57917141       2.41115097       5.15378668       1.32184599       1.93087528       1.27751497       0.00000000
Zr       5.07983752       2.54652964       7.60380376      -2.23923636      -1.06545804       0.01441130       0.00000000
Zr       5.08564578       5.02455363       0.00297192      -2.39820007       0.46777094      -1.17138690       0.00000000
Zr       7.64473657       4.96670647       2.39470752       0.16071683       1.62415091       2.48543571       0.00000000
Zr       7.58734595       7.75052808       0.07843248       1.68609262      -1.62294035      -0.71247374       0.00000000
Zr       5.29234658       7.56655892       2.69496890      -3.85060686       0.54120303      -3.24865864       0.00000000
Zr       5.16300735       5.07849758       5.03642655      -2.64548071       0.15004586       2.34286511       0.00000000
Zr       7.40102954       5.11181857       7.59738103       3.95076272       0.27616140      -0.67115189       0.00000000
Zr       7.51891711       7.68034362       4.95861116       3.80326734      -0.76068547       2.62836890       0.00000000
Zr       5.18919315       7.60830321       7.59034027      -3.84262017       1.00843416       1.09487793       0.00000000
96
Lattice="10.152563445534453 0.0 0.0 0.0 10.152563445534453 0.0 0.0 0.0 10.152563445534453" Properties=species:S:1:pos:R:3:forces:R:3:magmoms:R:1 energy=-891.6705337 stress="-0.06126887223019451 0.01062556440344233 -0.00930385907925489 0.01062556440344233 -0.062384441030036035 -0.005967333642171195 -0.00930385907925489 -0.005967333642171195 -0.062067668769468044" dipole="_JSON [[0.0, 0.0, 0.0]]" magmom=0.0 free_energy=-891.6705337 pbc="T T T"
O        3.78229839       3.75685766       3.74085842       1.65986872      -0.42753433       1.97145911       0.00000000
O        1.33527842       1.19650105       1.24267826      -0.08925032       1.67127739      -1.49873000       0.00000000
O        1.31042846       4.04690637       1.34946684      -0.17969080      -4.44116563      -1.32748558       0.00000000
O        3.66720846       1.17565699       3.89738631       0.57714777       0.66067486      -2.48468052       0.00000000
O        1.24206476       1.36901455       3.79405087      -0.59356492      -1.20706290      -2.19070553       0.00000000
O        3.79253946       3.80422681       1.41320955       0.39876661       1.02125204      -2.85498191       0.00000000
O        3.97120499       1.35729691       1.06377126      -2.56830349       1.20091732       2.17279869       0.00000000
O        1.33357029       3.66919455       3.72151531      -0.95111272       2.48551767       0.29701465       0.00000000
O        3.76952477       3.71702275       8.73606111       0.40293925      -0.13687944       3.46980000       0.00000000
O        1.31127628       1.21828589       6.05132399       0.46896115       1.12383773       4.07397990       0.00000000
O        1.21499391       3.90807513       6.30061538      -0.49482367      -1.72040959       0.34064277       0.00000000
O        3.77303458       1.14666153       8.86508416      -1.44388652       2.64768039      -1.37511141       0.00000000
O        1.23293387       1.22872239       8.74635097       0.13548244       2.33087646       1.20998215       0.00000000
O        3.62517839       3.87021718       6.48008042       5.11048226      -4.95918231      -5.86652363       0.00000000
O        3.72007067       1.43795758       6.12315465       1.81189905      -1.28946612       4.01964778       0.00000000
O        1.30336077       3.95246407       8.95329420      -0.53248810      -3.17463181       0.21752161       0.00000000
O        3.66983486       8.88702674       3.73210208       2.00161120      -1.21444904       0.94669024       0.00000000
O        1.45790785       6.23360732       1.34856036      -2.87328245       1.27403120      -0.16271447       0.00000000
O        1.23941123       8.77605021       1.32334945      -0.58765954       0.53660530      -0.76104588       0.00000000
O        4.12228750       6.22754005       3.86726968      -3.54661831       0.97240325      -1.76385644       0.00000000
O        1.37236275       6.25545604       3.73837493      -1.12268165       0.20945751       1.30727430       0.00000000
O        3.89616494       8.76921800       1.32906655      -0.83076799       2.91427173      -0.44946824       0.00000000
O        3.90824974       6.54741477       1.17796550      -0.24567057      -3.54617410       0.23692609       0.00000000
O        1.28798059       8.78118582       3.86962260      -0.12025639       0.45286048      -1.59582333       0.00000000
O        3.89608294       8.75898988       8.88163557      -1.81290737       2.85194006       0.18770975       0.00000000
O        1.20942430       6.31906449       6.34474179       0.63025986      -0.23731555      -1.16696748       0.00000000
O        1.28896273       8.74239665       6.22064923      -1.03258499       1.08732877       1.13848422       0.00000000
O        3.86515516       6.44631863       8.84416985      -0.44326141      -3.54314717       1.78026037       0.00000000
O        1.49693236       6.25802566       8.83607535      -1.96973739       1.49905815       1.97498593       0.00000000
O        3.64183332       8.87092932       6.28244392       1.57873195       0.81143986       0.66518487       0.00000000
O        3.87661018       6.24988020       6.38536933      -0.68660992       0.67490770      -1.76890755       0.00000000
O        1.21786640       8.93977517       8.69773530       1.15236715       1.24408335       1.37029716       0.00000000
O        8.94711252       3.82437975       3.79223130      -1.17353048      -0.27982255       0.26243791       0.00000000
O        6.30635038       1.41320928       1.24988336       1.89430471      -1.05858959      -0.49899085       0.00000000
O        6.51118854       3.76507073       1.13542957      -1.82249025       3.18396694       1.56732438       0.00000000
O        8.81721856       1.13581273       3.92145479      -0.47730564       2.24837579      -1.76845894       0.00000000
O        6.28794902       1.23820030       3.75267493      -0.44484486      -0.07351089      -0.35301980       0.00000000
O        8.99115137       3.86510111       1.43414570      -1.28212695       0.43099601      -2.08753457       0.00000000
O        8.94866536       1.32624324       1.21245616      -0.41185135      -0.07674182       0.33439512       0.00000000
O        6.34495377       3.80265503       3.77089811      -0.07298813       1.08180281      -1.57217943       0.00000000
O        8.89905964       3.80853914       8.86256814       0.81429529      -1.46761299       1.50019429       0.00000000
O        6.24557414       1.31775322       6.31108949       0.45705536      -0.40171940      -0.16101950       0.00000000
O        6.37662000       3.65860363       6.29314673      -2.36757022       2.14820059       1.18204027       0.00000000
O        8.76231083       1.25777399       8.82625456       1.28438918       0.48398583       1.59625115       0.00000000
O        6.22778755       1.19750259       8.74757335       1.17630971       0.99858269       0.85141127       0.00000000
O        8.83152535       3.72395402       6.36300462       0.28519527       0.60357899      -0.48546555       0.00000000
O        8.92014963       1.14825971       6.37848765       0.65603658       1.23682509       0.86657725       0.00000000
O        6.38731482       3.62507249       8.79317348      -0.09799932       1.34088361       0.83698900       0.00000000
O        9.08071876       9.09220837       3.82929082      -3.88353939      -5.32297170      -3.87066465       0.00000000
O        6.19212432       6.40943813       1.24187522       3.86260774      -2.87554476      -0.27170549       0.00000000
O        6.38244516       8.94201894       1.25822436       0.65913755      -0.23241025      -0.01378945       0.00000000
O        8.92023284       6.24492320       3.82000389      -1.13549183       2.07242190      -1.26440849       0.00000000
O        6.31440748       6.34321531       3.89864372       3.50874944      -1.06497464      -2.16359060       0.00000000
O        8.88474092       8.88288065       1.20897455      -0.29420377      -0.10487874       0.77269668       0.00000000
O        8.87793070       6.41533594       1.34503800      -1.61448512      -2.82522083      -1.03836940       0.00000000
O        6.41642061       8.67025272       3.81426906      -1.26289647       3.65884153      -2.21789764       0.00000000
O        8.95539977       8.76205238       8.89681290      -0.84243170       0.90495571       0.32142290       0.00000000
O        6.37014288       6.24506395       6.39936876      -0.36095676      -0.70798926      -1.51897001       0.00000000
O        6.32817046       8.97447329       6.39961223      -0.56974564      -0.55633832      -2.30616710       0.00000000
O        8.95535919       6.18808962       8.86567249      -0.55470518       0.72986492       1.88749934       0.00000000
O        6.30998960       6.34453123       8.77844317       0.78785330      -1.58694652       2.57979120       0.00000000
O        8.86315827       8.84640278       6.27072472      -0.08117119       0.64831307      -0.14674306       0.00000000
O        8.83330156       6.47739530       6.43540477       0.05626116      -2.42059044      -1.81445505       0.00000000
O        6.31561272       8.87905274       8.75560314       1.23468118      -0.08503296       1.86422197       0.00000000
Zr      -0.01162644       0.21786686      -0.08464052      -0.93651532      -4.60800849      -0.54565688       0.00000000
Zr       2.61897286      -0.01693906       2.52651392       1.11285377      -1.84811773       1.29523941       0.00000000
Zr       2.39542930       2.60035139      -0.02909693       2.08182447       1.14818218       0.36872218       0.00000000
Zr       0.13127276       2.54279620       2.47239849      -1.39702245      -0.85253756       2.55141410       0.00000000
Zr       0.08019273      -0.05802973       4.99528057       0.39404608       2.12824525       1.62899452       0.00000000
Zr       2.59861265       0.10632579       7.69099667      -0.88400140      -4.64203482      -2.64456681       0.00000000
Zr       2.50491550       2.62722436       5.00566247      -0.12417459      -2.17201875       0.56275681       0.00000000
Zr       0.09766714       2.51354311       7.57710301      -2.73701162       0.64139418      -3.24215255       0.00000000
Zr      -0.00098571       5.04413322       0.00438300       0.60286491       1.04374220      -2.63521704       0.00000000
Zr       2.52955521       4.99340851       2.71358148       1.35256261       1.42896858      -0.99315176       0.00000000
Zr       2.38719699       7.47398378       0.12970772       1.74720713       2.00584020      -2.68790018       0.00000000
Zr      -0.13518842       7.50793437       2.40133430       4.78569739       4.08578942       2.56912537       0.00000000
Zr      -0.00915990       5.16448136       5.01640037      -0.11953970      -0.77530917       2.47809613       0.00000000
Zr       2.68607901       4.99957734       7.44448849      -5.02848053       5.53315182       4.42072447       0.00000000
Zr       2.46722280       7.59689898       5.06633908       0.78497001       0.80360933      -0.47799304       0.00000000
Zr      -0.03000428       7.71333480       7.43414075       0.58695099      -1.15620476       1.53424986       0.00000000
Zr       5.05055308       0.24347098      -0.13067265       1.73434342      -6.38226290       0.99089124       0.00000000
Zr       7.55059481      -0.00656412       2.47454883       1.06449023       1.98056648       1.86673679       0.00000000
Zr       7.64932976       2.55981624       0.04460259       1.34728068      -1.00037727      -2.14153613       0.00000000
Zr       5.15497914       2.74734696       2.41074309      -1.37525175      -4.14706134       0.88969517       0.00000000
Zr       4.98071803       0.05916369       5.24070222       0.03239019      -0.28971892      -1.31555864       0.00000000
Zr       7.67655166      -0.08005100       7.60616793      -1.09171409      -1.68320705      -0.69201365       0.00000000
Zr       7.45401902       2.68566425       5.05144481       4.56059165      -5.11131338      -0.55950870       0.00000000
Zr       5.11490738       2.52196553       7.65254377      -0.22641756      -0.32318864      -1.69493933       0.00000000
Zr       5.02818308       5.19628025      -0.00127803      -1.67609746       1.37636926      -2.75144824       0.00000000
Zr       7.49298732       5.05158361       2.50066269       2.73179925      -0.57406499       1.78335375       0.00000000
Zr       7.67902426       7.47682365       0.14416657      -0.97421033       3.50887587      -6.11209603       0.00000000
Zr       5.27779826       7.62810283       2.43639588      -5.69670303       2.66939497       1.53624418       0.00000000
Zr       5.17618607       5.07972258       4.99458019      -0.95438949       1.38701575       3.36455234       0.00000000
Zr       7.58644608       4.94401593       7.57363875       0.71003626       2.77788615      -0.24662417       0.00000000
Zr       7.66003901       7.73782335       4.82255145       2.33384284      -1.53083705       5.99246254       0.00000000
Zr       4.88485488       7.54998747       7.59901642       3.52787635       2.17352812      -0.07637647       0.00000000
96
Lattice="10.152563445534453 0.0 0.0 0.0 10.152563445534453 0.0 0.0 0.0 10.152563445534453" Properties=species:S:1:pos:R:3:forces:R:3:magmoms:R:1 energy=-896.46215751 stress="-0.051388610344900124 0.00014557373823339217 -0.006141001792353704 0.00014557373823339217 -0.052883490365558575 -0.021926026571564367 -0.006141001792353704 -0.021926026571564367 -0.05091816850333609" dipole="_JSON [[0.0, 0.0, 0.0]]" magmom=0.0 free_energy=-896.46215751 pbc="T T T"
O        3.74658350       3.66355369       4.00016812       1.68336259       1.93707749      -0.86840484       0.00000000
O        1.04353365       1.29276954       1.45332889       2.94821643      -0.97324939      -1.79172214       0.00000000
O        1.48141168       3.85159364       1.30493361      -1.78044986      -0.27984442      -2.03444611       0.00000000
O        3.70290953       1.21515545       3.67229791       2.55246662      -1.02698757       1.47048133       0.00000000
O        1.40557972       1.20813836       3.91499269      -1.03779074      -1.41729711       0.02385810       0.00000000
O        3.82186919       3.81822299       1.36511452       1.61924676       0.62136666      -0.35832956       0.00000000
O        3.81996531       1.41296642       1.35605834      -0.81643109      -2.20160108      -1.48486089       0.00000000
O        1.25565763       3.77446861       3.70389880      -0.15784190       0.66701868       2.24251885       0.00000000
O        3.94129118       3.86104831       8.98683803      -2.08657446      -1.81293661      -0.57929296       0.00000000
O        1.26708691       1.19158061       6.35992076      -0.53819128       1.06086796       1.87723965       0.00000000
O        1.40123912       3.74924353       6.43831507      -2.75736034      -0.62305095      -1.09961439       0.00000000
O        3.87855308       1.20052487       8.99290124      -0.12355076       1.82411290      -2.04842718       0.00000000
O        1.35169565       1.21743417       8.95601030       0.26245791       0.50554238       0.24243201       0.00000000
O        3.69470867       3.88251452       6.43905268       2.40082916      -1.54387946       0.86034267       0.00000000
O        3.71848780       1.16816547       6.26079497       1.12761313       0.77628839       0.91775143       0.00000000
O        1.32327501       3.72909129       8.94746731      -0.77329331       0.99192885      -0.11977111       0.00000000
O        3.98292962       8.75861493       3.83174500      -2.73762949       2.28927690       0.54369088       0.00000000
O        1.22223077       6.32706438       1.40610282      -0.48568855       1.17439775      -2.58314217       0.00000000
O        1.30588458       8.99631578       1.20288614      -0.30930318      -1.36000430       0.44299534       0.00000000
O        3.71293064       6.48268439       3.63283133       1.06509249      -1.57647603       1.95514471       0.00000000
O        1.29444848       6.24893825       3.73275132      -0.95417419       2.00061440       3.91983774       0.00000000
O        3.79825669       8.86301646       1.15364226      -0.25011313       1.14006527       1.28217225       0.00000000
O        3.79994023       6.39887414       1.22000174       0.11086965      -0.63509008      -0.59880913       0.00000000
O        1.29102215       8.75195787       3.78755452       1.32424468       0.76173645      -0.31761039       0.00000000
O        3.92441122       8.86920358       8.90999207      -1.77219518      -0.94501314      -1.72708133       0.00000000
O        1.38462518       6.29667271       6.50586681      -1.41562815       1.41557239      -2.29852966       0.00000000
O        1.34946151       8.97779283       6.27542166      -0.59074022      -2.25662282      -0.10790158       0.00000000
O        3.77163961       6.35166228       8.82669936       0.47064033       0.36487651       0.27982519       0.00000000
O        1.25416207       6.37096254       8.90369723      -1.71292056      -0.90623916       0.96823633       0.00000000
O        3.78588507       8.95375034       6.30172768       0.61088832      -1.20174718       0.43713393       0.00000000
O        3.91094819       6.35648689       6.35716463       0.30935239       0.70799905      -1.49589034       0.00000000
O        1.18069952       8.84343299       8.79074924       1.63360597       0.31680739      -0.09851807       0.00000000
O        8.84085214       3.90851768       3.75636976      -0.56019814      -0.90362488       2.18003722       0.00000000
O        6.31057407       1.27030313       1.41552282      -0.23164436       0.34279566      -3.35022987       0.00000000
O        6.34373342       3.78587302       1.27804934       0.14526936       0.47200226      -0.99501513       0.00000000
O        8.90110584       1.27781303       3.79831205       0.53345858      -0.24032402      -0.57798750       0.00000000
O        6.42219318       1.33394171       3.66319483      -1.15140918       0.33711864       3.73488101       0.00000000
O        8.98218393       3.70543255       1.30914249      -0.07512046       1.58685678      -1.33264975       0.00000000
O        8.84161031       1.25180608       1.25528545      -1.43636535      -0.81701215      -1.27374541       0.00000000
O        6.31857077       3.89312443       3.89999591      -0.23700462      -0.11173201      -1.66615579       0.00000000
O        8.78463845       3.72517995       9.00714583       0.41647882       1.21740413      -1.12016583       0.00000000
O        6.29108144       1.15410585       6.24494168       0.46845922       0.72633348       1.59648301       0.00000000